# vtk DataFile Version 3.0
#This file was generated by the deal.II library on 2012/4/10 at 0:11:35
ASCII
DATASET UNSTRUCTURED_GRID

POINTS 8192 double
0 0 0
0.03125 0 0
0 0.03125 0
0.0302832 0.03125 0
0.03125 0 0
0.0625 0 0
0.0302832 0.03125 0
0.0605664 0.03125 0
0 0.03125 0
0.0302832 0.03125 0
0 0.0625 0
0.0293164 0.0625 0
0.0302832 0.03125 0
0.0605664 0.03125 0
0.0293164 0.0625 0
0.0586328 0.0625 0
0.0625 0 0
0.09375 0 0
0.0605664 0.03125 0
0.0908496 0.03125 0
0.09375 0 0
0.125 0 0
0.0908496 0.03125 0
0.121133 0.03125 0
0.0605664 0.03125 0
0.0908496 0.03125 0
0.0586328 0.0625 0
0.0879492 0.0625 0
0.0908496 0.03125 0
0.121133 0.03125 0
0.0879492 0.0625 0
0.117266 0.0625 0
0 0.0625 0
0.0293164 0.0625 0
0 0.09375 0
0.0283496 0.09375 0
0.0293164 0.0625 0
0.0586328 0.0625 0
0.0283496 0.09375 0
0.0566992 0.09375 0
0 0.09375 0
0.0283496 0.09375 0
0 0.125 0
0.0273828 0.125 0
0.0283496 0.09375 0
0.0566992 0.09375 0
0.0273828 0.125 0
0.0547656 0.125 0
0.0586328 0.0625 0
0.0879492 0.0625 0
0.0566992 0.09375 0
0.0850488 0.09375 0
0.0879492 0.0625 0
0.117266 0.0625 0
0.0850488 0.09375 0
0.113398 0.09375 0
0.0566992 0.09375 0
0.0850488 0.09375 0
0.0547656 0.125 0
0.0821484 0.125 0
0.0850488 0.09375 0
0.113398 0.09375 0
0.0821484 0.125 0
0.109531 0.125 0
0.125 0 0
0.15625 0 0
0.121133 0.03125 0
0.151416 0.03125 0
0.15625 0 0
0.1875 0 0
0.151416 0.03125 0
0.181699 0.03125 0
0.121133 0.03125 0
0.151416 0.03125 0
0.117266 0.0625 0
0.146582 0.0625 0
0.151416 0.03125 0
0.181699 0.03125 0
0.146582 0.0625 0
0.175898 0.0625 0
0.1875 0 0
0.21875 0 0
0.181699 0.03125 0
0.211982 0.03125 0
0.21875 0 0
0.25 0 0
0.211982 0.03125 0
0.242266 0.03125 0
0.181699 0.03125 0
0.211982 0.03125 0
0.175898 0.0625 0
0.205215 0.0625 0
0.211982 0.03125 0
0.242266 0.03125 0
0.205215 0.0625 0
0.234531 0.0625 0
0.117266 0.0625 0
0.146582 0.0625 0
0.113398 0.09375 0
0.141748 0.09375 0
0.146582 0.0625 0
0.175898 0.0625 0
0.141748 0.09375 0
0.170098 0.09375 0
0.113398 0.09375 0
0.141748 0.09375 0
0.109531 0.125 0
0.136914 0.125 0
0.141748 0.09375 0
0.170098 0.09375 0
0.136914 0.125 0
0.164297 0.125 0
0.175898 0.0625 0
0.205215 0.0625 0
0.170098 0.09375 0
0.198447 0.09375 0
0.205215 0.0625 0
0.234531 0.0625 0
0.198447 0.09375 0
0.226797 0.09375 0
0.170098 0.09375 0
0.198447 0.09375 0
0.164297 0.125 0
0.19168 0.125 0
0.198447 0.09375 0
0.226797 0.09375 0
0.19168 0.125 0
0.219062 0.125 0
0 0.125 0
0.0273828 0.125 0
0 0.15625 0
0.026416 0.15625 0
0.0273828 0.125 0
0.0547656 0.125 0
0.026416 0.15625 0
0.052832 0.15625 0
0 0.15625 0
0.026416 0.15625 0
0 0.1875 0
0.0254492 0.1875 0
0.026416 0.15625 0
0.052832 0.15625 0
0.0254492 0.1875 0
0.0508984 0.1875 0
0.0547656 0.125 0
0.0821484 0.125 0
0.052832 0.15625 0
0.079248 0.15625 0
0.0821484 0.125 0
0.109531 0.125 0
0.079248 0.15625 0
0.105664 0.15625 0
0.052832 0.15625 0
0.079248 0.15625 0
0.0508984 0.1875 0
0.0763477 0.1875 0
0.079248 0.15625 0
0.105664 0.15625 0
0.0763477 0.1875 0
0.101797 0.1875 0
0 0.1875 0
0.0254492 0.1875 0
0 0.21875 0
0.0244824 0.21875 0
0.0254492 0.1875 0
0.0508984 0.1875 0
0.0244824 0.21875 0
0.0489648 0.21875 0
0 0.21875 0
0.0244824 0.21875 0
0 0.25 0
0.0235156 0.25 0
0.0244824 0.21875 0
0.0489648 0.21875 0
0.0235156 0.25 0
0.0470312 0.25 0
0.0508984 0.1875 0
0.0763477 0.1875 0
0.0489648 0.21875 0
0.0734473 0.21875 0
0.0763477 0.1875 0
0.101797 0.1875 0
0.0734473 0.21875 0
0.0979297 0.21875 0
0.0489648 0.21875 0
0.0734473 0.21875 0
0.0470312 0.25 0
0.0705469 0.25 0
0.0734473 0.21875 0
0.0979297 0.21875 0
0.0705469 0.25 0
0.0940625 0.25 0
0.109531 0.125 0
0.136914 0.125 0
0.105664 0.15625 0
0.13208 0.15625 0
0.136914 0.125 0
0.164297 0.125 0
0.13208 0.15625 0
0.158496 0.15625 0
0.105664 0.15625 0
0.13208 0.15625 0
0.101797 0.1875 0
0.127246 0.1875 0
0.13208 0.15625 0
0.158496 0.15625 0
0.127246 0.1875 0
0.152695 0.1875 0
0.164297 0.125 0
0.19168 0.125 0
0.158496 0.15625 0
0.184912 0.15625 0
0.19168 0.125 0
0.219062 0.125 0
0.184912 0.15625 0
0.211328 0.15625 0
0.158496 0.15625 0
0.184912 0.15625 0
0.152695 0.1875 0
0.178145 0.1875 0
0.184912 0.15625 0
0.211328 0.15625 0
0.178145 0.1875 0
0.203594 0.1875 0
0.101797 0.1875 0
0.127246 0.1875 0
0.0979297 0.21875 0
0.122412 0.21875 0
0.127246 0.1875 0
0.152695 0.1875 0
0.122412 0.21875 0
0.146895 0.21875 0
0.0979297 0.21875 0
0.122412 0.21875 0
0.0940625 0.25 0
0.117578 0.25 0
0.122412 0.21875 0
0.146895 0.21875 0
0.117578 0.25 0
0.141094 0.25 0
0.152695 0.1875 0
0.178145 0.1875 0
0.146895 0.21875 0
0.171377 0.21875 0
0.178145 0.1875 0
0.203594 0.1875 0
0.171377 0.21875 0
0.195859 0.21875 0
0.146895 0.21875 0
0.171377 0.21875 0
0.141094 0.25 0
0.164609 0.25 0
0.171377 0.21875 0
0.195859 0.21875 0
0.164609 0.25 0
0.188125 0.25 0
0.25 0 0
0.28125 0 0
0.242266 0.03125 0
0.272549 0.03125 0
0.28125 0 0
0.3125 0 0
0.272549 0.03125 0
0.302832 0.03125 0
0.242266 0.03125 0
0.272549 0.03125 0
0.234531 0.0625 0
0.263848 0.0625 0
0.272549 0.03125 0
0.302832 0.03125 0
0.263848 0.0625 0
0.293164 0.0625 0
0.3125 0 0
0.34375 0 0
0.302832 0.03125 0
0.333115 0.03125 0
0.34375 0 0
0.375 0 0
0.333115 0.03125 0
0.363398 0.03125 0
0.302832 0.03125 0
0.333115 0.03125 0
0.293164 0.0625 0
0.32248 0.0625 0
0.333115 0.03125 0
0.363398 0.03125 0
0.32248 0.0625 0
0.351797 0.0625 0
0.234531 0.0625 0
0.263848 0.0625 0
0.226797 0.09375 0
0.255146 0.09375 0
0.263848 0.0625 0
0.293164 0.0625 0
0.255146 0.09375 0
0.283496 0.09375 0
0.226797 0.09375 0
0.255146 0.09375 0
0.219062 0.125 0
0.246445 0.125 0
0.255146 0.09375 0
0.283496 0.09375 0
0.246445 0.125 0
0.273828 0.125 0
0.293164 0.0625 0
0.32248 0.0625 0
0.283496 0.09375 0
0.311846 0.09375 0
0.32248 0.0625 0
0.351797 0.0625 0
0.311846 0.09375 0
0.340195 0.09375 0
0.283496 0.09375 0
0.311846 0.09375 0
0.273828 0.125 0
0.301211 0.125 0
0.311846 0.09375 0
0.340195 0.09375 0
0.301211 0.125 0
0.328594 0.125 0
0.375 0 0
0.40625 0 0
0.363398 0.03125 0
0.393682 0.03125 0
0.40625 0 0
0.4375 0 0
0.393682 0.03125 0
0.423965 0.03125 0
0.363398 0.03125 0
0.393682 0.03125 0
0.351797 0.0625 0
0.381113 0.0625 0
0.393682 0.03125 0
0.423965 0.03125 0
0.381113 0.0625 0
0.41043 0.0625 0
0.4375 0 0
0.46875 0 0
0.423965 0.03125 0
0.454248 0.03125 0
0.46875 0 0
0.5 0 0
0.454248 0.03125 0
0.484531 0.03125 0
0.423965 0.03125 0
0.454248 0.03125 0
0.41043 0.0625 0
0.439746 0.0625 0
0.454248 0.03125 0
0.484531 0.03125 0
0.439746 0.0625 0
0.469062 0.0625 0
0.351797 0.0625 0
0.381113 0.0625 0
0.340195 0.09375 0
0.368545 0.09375 0
0.381113 0.0625 0
0.41043 0.0625 0
0.368545 0.09375 0
0.396895 0.09375 0
0.340195 0.09375 0
0.368545 0.09375 0
0.328594 0.125 0
0.355977 0.125 0
0.368545 0.09375 0
0.396895 0.09375 0
0.355977 0.125 0
0.383359 0.125 0
0.41043 0.0625 0
0.439746 0.0625 0
0.396895 0.09375 0
0.425244 0.09375 0
0.439746 0.0625 0
0.469062 0.0625 0
0.425244 0.09375 0
0.453594 0.09375 0
0.396895 0.09375 0
0.425244 0.09375 0
0.383359 0.125 0
0.410742 0.125 0
0.425244 0.09375 0
0.453594 0.09375 0
0.410742 0.125 0
0.438125 0.125 0
0.219062 0.125 0
0.246445 0.125 0
0.211328 0.15625 0
0.237744 0.15625 0
0.246445 0.125 0
0.273828 0.125 0
0.237744 0.15625 0
0.26416 0.15625 0
0.211328 0.15625 0
0.237744 0.15625 0
0.203594 0.1875 0
0.229043 0.1875 0
0.237744 0.15625 0
0.26416 0.15625 0
0.229043 0.1875 0
0.254492 0.1875 0
0.273828 0.125 0
0.301211 0.125 0
0.26416 0.15625 0
0.290576 0.15625 0
0.301211 0.125 0
0.328594 0.125 0
0.290576 0.15625 0
0.316992 0.15625 0
0.26416 0.15625 0
0.290576 0.15625 0
0.254492 0.1875 0
0.279941 0.1875 0
0.290576 0.15625 0
0.316992 0.15625 0
0.279941 0.1875 0
0.305391 0.1875 0
0.203594 0.1875 0
0.229043 0.1875 0
0.195859 0.21875 0
0.220342 0.21875 0
0.229043 0.1875 0
0.254492 0.1875 0
0.220342 0.21875 0
0.244824 0.21875 0
0.195859 0.21875 0
0.220342 0.21875 0
0.188125 0.25 0
0.211641 0.25 0
0.220342 0.21875 0
0.244824 0.21875 0
0.211641 0.25 0
0.235156 0.25 0
0.254492 0.1875 0
0.279941 0.1875 0
0.244824 0.21875 0
0.269307 0.21875 0
0.279941 0.1875 0
0.305391 0.1875 0
0.269307 0.21875 0
0.293789 0.21875 0
0.244824 0.21875 0
0.269307 0.21875 0
0.235156 0.25 0
0.258672 0.25 0
0.269307 0.21875 0
0.293789 0.21875 0
0.258672 0.25 0
0.282187 0.25 0
0.328594 0.125 0
0.355977 0.125 0
0.316992 0.15625 0
0.343408 0.15625 0
0.355977 0.125 0
0.383359 0.125 0
0.343408 0.15625 0
0.369824 0.15625 0
0.316992 0.15625 0
0.343408 0.15625 0
0.305391 0.1875 0
0.33084 0.1875 0
0.343408 0.15625 0
0.369824 0.15625 0
0.33084 0.1875 0
0.356289 0.1875 0
0.383359 0.125 0
0.410742 0.125 0
0.369824 0.15625 0
0.39624 0.15625 0
0.410742 0.125 0
0.438125 0.125 0
0.39624 0.15625 0
0.422656 0.15625 0
0.369824 0.15625 0
0.39624 0.15625 0
0.356289 0.1875 0
0.381738 0.1875 0
0.39624 0.15625 0
0.422656 0.15625 0
0.381738 0.1875 0
0.407187 0.1875 0
0.305391 0.1875 0
0.33084 0.1875 0
0.293789 0.21875 0
0.318271 0.21875 0
0.33084 0.1875 0
0.356289 0.1875 0
0.318271 0.21875 0
0.342754 0.21875 0
0.293789 0.21875 0
0.318271 0.21875 0
0.282187 0.25 0
0.305703 0.25 0
0.318271 0.21875 0
0.342754 0.21875 0
0.305703 0.25 0
0.329219 0.25 0
0.356289 0.1875 0
0.381738 0.1875 0
0.342754 0.21875 0
0.367236 0.21875 0
0.381738 0.1875 0
0.407187 0.1875 0
0.367236 0.21875 0
0.391719 0.21875 0
0.342754 0.21875 0
0.367236 0.21875 0
0.329219 0.25 0
0.352734 0.25 0
0.367236 0.21875 0
0.391719 0.21875 0
0.352734 0.25 0
0.37625 0.25 0
0 0.25 0
0.0235156 0.25 0
0 0.28125 0
0.0225488 0.28125 0
0.0235156 0.25 0
0.0470312 0.25 0
0.0225488 0.28125 0
0.0450977 0.28125 0
0 0.28125 0
0.0225488 0.28125 0
0 0.3125 0
0.021582 0.3125 0
0.0225488 0.28125 0
0.0450977 0.28125 0
0.021582 0.3125 0
0.0431641 0.3125 0
0.0470312 0.25 0
0.0705469 0.25 0
0.0450977 0.28125 0
0.0676465 0.28125 0
0.0705469 0.25 0
0.0940625 0.25 0
0.0676465 0.28125 0
0.0901953 0.28125 0
0.0450977 0.28125 0
0.0676465 0.28125 0
0.0431641 0.3125 0
0.0647461 0.3125 0
0.0676465 0.28125 0
0.0901953 0.28125 0
0.0647461 0.3125 0
0.0863281 0.3125 0
0 0.3125 0
0.021582 0.3125 0
0 0.34375 0
0.0206152 0.34375 0
0.021582 0.3125 0
0.0431641 0.3125 0
0.0206152 0.34375 0
0.0412305 0.34375 0
0 0.34375 0
0.0206152 0.34375 0
0 0.375 0
0.0196484 0.375 0
[...]
POINT_DATA 8192
SCALARS Temperature double 1
LOOKUP_TABLE default
445.406 445.595 445.356 445.535 445.595 445.957 445.535 445.877 445.356 445.535 445.202 445.37 445.535 445.877 445.37 445.692 445.957 446.493 445.877 446.383 446.493 447.206 446.383 447.054 445.877 446.383 445.692 446.167 446.383 447.054 446.167 446.796 445.202 445.37 444.944 445.101 445.37 445.692 445.101 445.402 444.944 445.101 444.582 444.729 445.101 445.402 444.729 445.008 445.692 446.167 445.402 445.846 446.167 446.796 445.846 446.434 445.402 445.846 445.008 445.421 445.846 446.434 445.421 445.968 447.206 448.095 447.054 447.89 448.095 449.16 447.89 448.893 447.054 447.89 446.796 447.58 447.89 448.893 447.58 448.52 449.16 450.403 448.893 450.061 450.403 451.823 450.061 451.396 448.893 450.061 448.52 449.614 450.061 451.396 449.614 450.864 446.796 447.58 446.434 447.166 447.58 448.52 447.166 448.042 446.434 447.166 445.968 446.648 447.166 448.042 446.648 447.463 448.52 449.614 448.042 449.064 449.614 450.864 449.064 450.229 448.042 449.064 447.463 448.411 449.064 450.229 448.411 449.493 444.582 444.729 444.116 444.252 444.729 445.008 444.252 444.511 444.116 444.252 443.546 443.672 444.252 444.511 443.672 443.911 445.008 445.421 444.511 444.893 445.421 445.968 444.893 445.399 444.511 444.893 443.911 444.263 444.893 445.399 444.263 444.729 443.546 443.672 442.874 442.99 443.672 443.911 442.99 443.209 442.874 442.99 442.1 442.206 442.99 443.209 442.206 442.407 443.911 444.263 443.209 443.532 444.263 444.729 443.532 443.96 443.209 443.532 442.407 442.702 443.532 443.96 442.702 443.091 445.968 446.648 445.399 446.029 446.648 447.463 446.029 446.782 445.399 446.029 444.729 445.309 446.029 446.782 445.309 446.002 447.463 448.411 446.782 447.659 448.411 449.493 447.659 448.66 446.782 447.659 446.002 446.81 447.659 448.66 446.81 447.73 444.729 445.309 443.96 444.491 445.309 446.002 444.491 445.126 443.96 444.491 443.091 443.575 444.491 445.126 443.575 444.154 446.002 446.81 445.126 445.865 446.81 447.73 445.865 446.708 445.126 445.865 444.154 444.827 445.865 446.708 444.827 445.595 451.823 453.42 451.396 452.897 453.42 455.194 452.897 454.564 451.396 452.897 450.864 452.269 452.897 454.564 452.269 453.83 455.194 457.144 454.564 456.397 457.144 459.271 456.397 458.395 454.564 456.397 453.83 455.545 456.397 458.395 455.545 457.415 450.864 452.269 450.229 451.539 452.269 453.83 451.539 452.994 450.229 451.539 449.493 450.71 451.539 452.994 450.71 452.06 453.83 455.545 452.994 454.593 455.545 457.415 454.593 456.336 452.994 454.593 452.06 453.544 454.593 456.336 453.544 455.162 459.271 461.573 458.395 460.558 461.573 464.051 460.558 462.886 458.395 460.558 457.415 459.44 460.558 462.886 459.44 461.618 464.051 466.703 462.886 465.378 466.703 469.53 465.378 468.034 462.886 465.378 461.618 463.951 465.378 468.034 463.951 466.436 457.415 459.44 456.336 458.223 459.44 461.618 458.223 460.254 456.336 458.223 455.162 456.914 458.223 460.254 456.914 458.798 461.618 463.951 460.254 462.427 463.951 466.436 462.427 464.744 460.254 462.427 458.798 460.816 462.427 464.744 460.816 462.966 449.493 450.71 448.66 449.784 450.71 452.06 449.784 451.032 448.66 449.784 447.73 448.765 449.784 451.032 448.765 449.913 452.06 453.544 451.032 452.403 453.544 455.162 452.403 453.898 451.032 452.403 449.913 451.174 452.403 453.898 451.174 452.549 447.73 448.765 446.708 447.655 448.765 449.913 447.655 448.705 446.708 447.655 445.595 446.457 447.655 448.705 446.457 447.414 449.913 451.174 448.705 449.86 451.174 452.549 449.86 451.118 448.705 449.86 447.414 448.465 449.86 451.118 448.465 449.61 455.162 456.914 453.898 455.517 456.914 458.798 455.517 457.258 453.898 455.517 452.549 454.037 455.517 457.258 454.037 455.638 458.798 460.816 457.258 459.122 460.816 462.966 459.122 461.108 457.258 459.122 455.638 457.352 459.122 461.108 457.352 459.179 452.549 454.037 451.118 452.48 454.037 455.638 452.48 453.945 451.118 452.48 449.61 450.85 452.48 453.945 450.85 452.183 455.638 457.352 453.945 455.513 457.352 459.179 455.513 457.185 453.945 455.513 452.183 453.611 455.513 457.185 453.611 455.132 442.1 442.206 441.226 441.323 442.206 442.407 441.323 441.505 441.226 441.323 440.254 440.342 441.323 441.505 440.342 440.506 442.407 442.702 441.505 441.773 442.702 443.091 441.773 442.126 441.505 441.773 440.506 440.748 441.773 442.126 440.748 441.067 440.254 440.342 439.185 439.264 440.342 440.506 439.264 439.412 439.185 439.264 438.021 438.092 439.264 439.412 438.092 438.225 440.506 440.748 439.412 439.629 440.748 441.067 439.629 439.914 439.412 439.629 438.225 438.418 439.629 439.914 438.418 438.672 443.091 443.575 442.126 442.565 443.575 444.154 442.565 443.089 442.126 442.565 441.067 441.462 442.565 443.089 441.462 441.934 444.154 444.827 443.089 443.699 444.827 445.595 443.699 444.394 443.089 443.699 441.934 442.483 443.699 444.394 442.483 443.109 441.067 441.462 439.914 440.268 441.462 441.934 440.268 440.691 439.914 440.268 438.672 438.986 440.268 440.691 438.986 439.362 441.934 442.483 440.691 441.182 442.483 443.109 441.182 441.742 440.691 441.182 439.362 439.798 441.182 441.742 439.798 440.295 438.021 438.092 436.765 436.829 438.092 438.225 436.829 436.946 436.765 436.829 435.419 435.476 436.829 436.946 435.476 435.579 438.225 438.418 436.946 437.117 438.418 438.672 437.117 437.341 436.946 437.117 435.579 435.729 437.117 437.341 435.729 435.925 435.419 435.476 433.986 434.036 435.476 435.579 434.036 434.126 433.986 434.036 432.469 432.513 434.036 434.126 432.513 432.591 435.579 435.729 434.126 434.257 435.729 435.925 434.257 434.427 434.126 434.257 432.591 432.703 434.257 434.427 432.703 432.85 438.672 438.986 437.341 437.619 438.986 439.362 437.619 437.95 437.341 437.619 435.925 436.168 437.619 437.95 436.168 436.458 439.362 439.798 437.95 438.335 439.798 440.295 438.335 438.773 437.95 438.335 436.458 436.795 438.335 438.773 436.795 437.178 435.925 436.168 434.427 434.638 436.168 436.458 434.638 434.889 434.427 434.638 432.85 433.031 434.638 434.889 433.031 433.247 436.458 436.795 434.889 435.181 436.795 437.178 435.181 435.512 434.889 435.181 433.247 433.496 435.181 435.512 433.496 433.781 445.595 446.457 444.394 445.175 446.457 447.414 445.175 446.041 444.394 445.175 443.109 443.812 445.175 446.041 443.812 444.591 447.414 448.465 446.041 446.993 448.465 449.61 446.993 448.029 446.041 446.993 444.591 445.447 446.993 448.029 445.447 446.38 443.109 443.812 441.742 442.37 443.812 444.591 442.37 443.067 441.742 442.37 440.295 440.853 442.37 443.067 440.853 441.472 444.591 445.447 443.067 443.832 445.447 446.38 443.832 444.666 443.067 443.832 441.472 442.151 443.832 444.666 442.151 442.891 449.61 450.85 448.029 449.151 450.85 452.183 449.151 450.358 448.029 449.151 446.38 447.389 449.151 450.358 447.389 448.475 452.183 453.611 450.358 451.65 453.611 455.132 451.65 453.027 450.358 451.65 448.475 449.637 451.65 453.027 449.637 450.876 446.38 447.389 444.666 445.568 447.389 448.475 445.568 446.539 444.666 445.568 442.891 443.692 445.568 446.539 443.692 444.553 448.475 449.637 446.539 447.577 449.637 450.876 447.577 448.684 446.539 447.577 444.553 445.475 447.577 448.684 445.475 446.457 440.295 440.853 438.773 439.265 440.853 441.472 439.265 439.81 438.773 439.265 437.178 437.607 439.265 439.81 437.607 438.083 441.472 442.151 439.81 440.408 442.151 442.891 440.408 441.06 439.81 440.408 438.083 438.606 440.408 441.06 438.606 439.175 437.178 437.607 435.512 435.884 437.607 438.083 435.884 436.296 435.512 435.884 433.781 434.099 435.884 436.296 434.099 434.453 438.083 438.606 436.296 436.749 438.606 439.175 436.749 437.241 436.296 436.749 434.453 434.84 436.749 437.241 434.84 435.262 442.891 443.692 441.06 441.765 443.692 444.553 441.765 442.523 441.06 441.765 439.175 439.791 441.765 442.523 439.791 440.453 444.553 445.475 442.523 443.335 445.475 446.457 443.335 444.2 442.523 443.335 440.453 441.162 443.335 444.2 441.162 441.917 439.175 439.791 437.241 437.774 439.791 440.453 437.774 438.347 437.241 437.774 435.262 435.718 437.774 438.347 435.718 436.208 440.453 441.162 438.347 438.96 441.162 441.917 438.96 439.613 438.347 438.96 436.208 436.733 438.96 439.613 436.733 437.292 469.53 472.53 468.034 470.853 472.53 475.702 470.853 473.834 468.034 470.853 466.436 469.074 470.853 473.834 469.074 471.864 475.702 479.045 473.834 476.976 479.045 482.559 476.976 480.278 473.834 476.976 471.864 474.805 476.976 480.278 474.805 477.897 466.436 469.074 464.744 467.203 469.074 471.864 467.203 469.804 464.744 467.203 462.966 465.248 467.203 469.804 465.248 467.662 471.864 474.805 469.804 472.545 474.805 477.897 472.545 475.428 469.804 472.545 467.662 470.207 472.545 475.428 470.207 472.882 482.559 486.242 480.278 483.74 486.242 490.093 483.74 487.361 480.278 483.74 477.897 481.138 483.74 487.361 481.138 484.528 490.093 494.111 487.361 491.138 494.111 498.293 491.138 495.071 487.361 491.138 484.528 488.065 491.138 495.071 488.065 491.749 477.897 481.138 475.428 478.45 481.138 484.528 478.45 481.611 475.428 478.45 472.882 475.688 478.45 481.611 475.688 478.622 484.528 488.065 481.611 484.91 488.065 491.749 484.91 488.346 481.611 484.91 478.622 481.686 484.91 488.346 481.686 484.877 462.966 465.248 461.108 463.217 465.248 467.662 463.217 465.447 461.108 463.217 459.179 461.118 463.217 465.447 461.118 463.169 467.662 470.207 465.447 467.799 470.207 472.882 467.799 470.271 465.447 467.799 463.169 465.332 467.799 470.271 465.332 467.606 459.179 461.118 457.185 458.959 461.118 463.169 458.959 460.836 457.185 458.959 455.132 456.747 458.959 460.836 456.747 458.455 463.169 465.332 460.836 462.815 465.332 467.606 462.815 464.896 460.836 462.815 458.455 460.257 462.815 464.896 460.257 462.151 472.882 475.688 470.271 472.864 475.688 478.622 472.864 475.577 470.271 472.864 467.606 469.991 472.864 475.577 469.991 472.486 478.622 481.686 475.577 478.408 481.686 484.877 478.408 481.359 475.577 478.408 472.486 475.091 478.408 481.359 475.091 477.806 467.606 469.991 464.896 467.079 469.991 472.486 467.079 469.362 464.896 467.079 462.151 464.138 467.079 469.362 464.138 466.217 472.486 475.091 469.362 471.747 475.091 477.806 471.747 474.232 469.362 471.747 466.217 468.388 471.747 474.232 468.388 470.65 498.293 502.639 495.071 499.158 502.639 507.146 499.158 503.399 495.071 499.158 491.749 495.579 499.158 503.399 495.579 499.552 507.146 511.813 503.399 507.79 511.813 516.637 507.79 512.331 503.399 507.79 499.552 503.668 507.79 512.331 503.668 507.925 491.749 495.579 488.346 491.918 495.579 499.552 491.918 495.625 488.346 491.918 484.877 488.195 491.918 495.625 488.195 491.639 499.552 503.668 495.625 499.467 503.668 507.925 499.467 503.44 495.625 499.467 491.639 495.208 499.467 503.44 495.208 498.901 516.637 521.617 512.331 517.02 521.617 526.75 517.02 521.854 512.331 517.02 507.925 512.321 517.02 521.854 512.321 516.855 526.75 532.034 521.854 526.832 532.034 537.465 526.832 531.951 521.854 526.832 516.855 521.526 526.832 531.951 521.526 526.33 507.925 512.321 503.44 507.545 512.321 516.855 507.545 511.78 503.44 507.545 498.901 502.717 507.545 511.78 502.717 506.655 516.855 521.526 511.78 516.143 521.526 526.33 516.143 520.633 511.78 516.143 506.655 510.713 516.143 520.633 510.713 514.89 484.877 488.195 481.359 484.427 488.195 491.639 484.427 487.612 481.359 484.427 477.806 480.629 484.427 487.612 480.629 483.56 491.639 495.208 487.612 490.913 495.208 498.901 490.913 494.329 487.612 490.913 483.56 486.599 490.913 494.329 486.599 489.744 477.806 480.629 474.232 476.816 480.629 483.56 476.816 479.5 474.232 476.816 470.65 473.004 476.816 479.5 473.004 475.448 483.56 486.599 479.5 482.283 486.599 489.744 482.283 485.164 479.5 482.283 475.448 477.983 482.283 485.164 477.983 480.608 498.901 502.717 494.329 497.86 502.717 506.655 497.86 501.504 494.329 497.86 489.744 492.995 497.86 501.504 492.995 496.352 506.655 510.713 501.504 505.261 510.713 514.89 505.261 509.129 501.504 505.261 496.352 499.812 505.261 509.129 499.812 503.376 489.744 492.995 485.164 488.143 492.995 496.352 488.143 491.218 485.164 488.143 480.608 483.322 488.143 491.218 483.322 486.124 496.352 499.812 491.218 494.39 499.812 503.376 494.39 497.657 491.218 494.39 486.124 489.015 494.39 497.657 489.015 491.993 455.132 456.747 453.027 454.489 456.747 458.455 454.489 456.035 453.027 454.489 450.876 452.191 454.489 456.035 452.191 453.581 458.455 460.257 456.035 457.665 460.257 462.151 457.665 459.38 456.035 457.665 453.581 455.048 457.665 459.38 455.048 456.59 450.876 452.191 448.684 449.859 452.191 453.581 449.859 451.102 448.684 449.859 446.457 447.499 449.859 451.102 447.499 448.602 453.581 455.048 451.102 452.412 455.048 456.59 452.412 453.791 451.102 452.412 448.602 449.765 452.412 453.791 449.765 450.988 462.151 464.138 459.38 461.178 464.138 466.217 461.178 463.06 459.38 461.178 456.59 458.208 461.178 463.06 458.208 459.901 466.217 468.388 463.06 465.025 468.388 470.65 465.025 467.073 463.06 465.025 459.901 461.669 465.025 467.073 461.669 463.512 456.59 458.208 453.791 455.237 458.208 459.901 455.237 456.75 453.791 455.237 450.988 452.271 455.237 456.75 452.271 453.614 459.901 461.669 456.75 458.33 461.669 463.512 458.33 459.978 456.75 458.33 453.614 455.016 458.33 459.978 455.016 456.478 446.457 447.499 444.2 445.117 447.499 448.602 445.117 446.088 444.2 445.117 441.917 442.718 445.117 446.088 442.718 443.566 448.602 449.765 446.088 447.112 449.765 450.988 447.112 448.189 446.088 447.112 443.566 444.459 447.112 448.189 444.459 445.399 441.917 442.718 439.613 440.306 442.718 443.566 440.306 441.039 439.613 440.306 437.292 437.885 440.306 441.039 437.885 438.512 443.566 444.459 441.039 441.812 444.459 445.399 441.812 442.625 441.039 441.812 438.512 439.174 441.812 442.625 439.174 439.87 450.988 452.271 448.189 449.319 452.271 453.614 449.319 450.501 448.189 449.319 445.399 446.386 449.319 450.501 446.386 447.418 453.614 455.016 450.501 451.736 455.016 456.478 451.736 453.023 450.501 451.736 447.418 448.496 451.736 453.023 448.496 449.62 445.399 446.386 442.625 443.478 446.386 447.418 443.478 444.37 442.625 443.478 439.87 440.599 443.478 444.37 440.599 441.363 447.418 448.496 444.37 445.302 448.496 449.62 445.302 446.274 444.37 445.302 441.363 442.161 445.302 446.274 442.161 442.993 470.65 473.004 467.073 469.205 473.004 475.448 469.205 471.418 467.073 469.205 463.512 465.43 469.205 471.418 465.43 467.422 475.448 477.983 471.418 473.714 477.983 480.608 473.714 476.091 471.418 473.714 467.422 469.488 473.714 476.091 469.488 471.628 463.512 465.43 459.978 461.692 465.43 467.422 461.692 463.473 459.978 461.692 456.478 458 461.692 463.473 458 459.58 467.422 469.488 463.473 465.32 469.488 471.628 465.32 467.233 463.473 465.32 459.58 461.22 465.32 467.233 461.22 462.919 480.608 483.322 476.091 478.549 483.322 486.124 478.549 481.088 476.091 478.549 471.628 473.841 478.549 481.088 473.841 476.127 486.124 489.015 481.088 483.708 489.015 491.993 483.708 486.407 481.088 483.708 476.127 478.486 483.708 486.407 478.486 480.918 471.628 473.841 467.233 469.212 473.841 476.127 469.212 471.257 467.233 469.212 462.919 464.676 469.212 471.257 464.676 466.491 476.127 478.486 471.257 473.367 478.486 480.918 473.367 475.542 471.257 473.367 466.491 468.365 473.367 475.542 468.365 470.297 456.478 458 453.023 454.363 458 459.58 454.363 455.755 453.023 454.363 449.62 450.789 454.363 455.755 450.789 452.005 459.58 461.22 455.755 457.199 461.22 462.919 457.199 458.695 455.755 457.199 452.005 453.266 457.199 458.695 453.266 454.572 449.62 450.789 446.274 447.286 450.789 452.005 447.286 448.337 446.274 447.286 442.993 443.859 447.286 448.337 443.859 444.758 452.005 453.266 448.337 449.428 453.266 454.572 449.428 450.558 448.337 449.428 444.758 445.692 449.428 450.558 445.692 446.659 462.919 464.676 458.695 460.243 464.676 466.491 460.243 461.842 458.695 460.243 454.572 455.924 460.243 461.842 455.924 457.321 466.491 468.365 461.842 463.493 468.365 470.297 463.493 465.195 461.842 463.493 457.321 458.763 463.493 465.195 458.763 460.25 454.572 455.924 450.558 451.727 455.924 457.321 451.727 452.935 450.558 451.727 446.659 447.66 451.727 452.935 447.66 448.694 457.321 458.763 452.935 454.183 458.763 460.25 454.183 455.47 452.935 454.183 448.694 449.762 454.183 455.47 449.762 450.864 432.469 432.513 430.871 430.909 432.513 432.591 430.909 430.976 430.871 430.909 429.196 429.228 430.909 430.976 429.228 429.285 432.591 432.703 430.976 431.072 432.703 432.85 431.072 431.196 430.976 431.072 429.285 429.365 431.072 431.196 429.365 429.47 429.196 429.228 427.446 427.474 429.228 429.285 427.474 427.521 427.446 427.474 425.627 425.65 427.474 427.521 425.65 425.689 429.285 429.365 427.521 427.588 429.365 429.47 427.588 427.675 427.521 427.588 425.689 425.744 427.588 427.675 425.744 425.814 432.85 433.031 431.196 431.35 433.031 433.247 431.35 431.533 431.196 431.35 429.47 429.599 431.35 431.533 429.599 429.752 433.247 433.496 431.533 431.745 433.496 433.781 431.745 431.986 431.533 431.745 429.752 429.93 431.745 431.986 429.93 430.132 429.47 429.599 427.675 427.782 429.599 429.752 427.782 427.908 427.675 427.782 425.814 425.901 427.782 427.908 425.901 426.004 429.752 429.93 427.908 428.055 429.93 430.132 428.055 428.221 427.908 428.055 426.004 426.123 428.055 428.221 426.123 426.258 425.627 425.65 423.742 423.76 425.65 425.689 423.76 423.792 423.742 423.76 421.794 421.81 423.76 423.792 421.81 421.835 425.689 425.744 423.792 423.836 425.744 425.814 423.836 423.893 423.792 423.836 421.835 421.869 423.836 423.893 421.869 421.914 421.794 421.81 419.79 419.802 421.81 421.835 419.802 419.822 419.79 419.802 417.734 417.743 419.802 419.822 417.743 417.758 421.835 421.869 419.822 419.848 421.869 421.914 419.848 419.882 419.822 419.848 417.758 417.778 419.848 419.882 417.778 417.803 425.814 425.901 423.893 423.962 425.901 426.004 423.962 424.044 423.893 423.962 421.914 421.968 423.962 424.044 421.968 422.032 426.004 426.123 424.044 424.138 426.123 426.258 424.138 424.245 424.044 424.138 422.032 422.105 424.138 424.245 422.105 422.188 421.914 421.968 419.882 419.923 421.968 422.032 419.923 419.972 419.882 419.923 417.803 417.833 419.923 419.972 417.833 417.868 422.032 422.105 419.972 420.027 422.105 422.188 420.027 420.09 419.972 420.027 417.868 417.909 420.027 420.09 417.909 417.955 433.781 434.099 431.986 432.256 434.099 434.453 432.256 432.555 431.986 432.256 430.132 430.357 432.256 432.555 430.357 430.607 434.453 434.84 432.555 432.883 434.84 435.262 432.883 433.24 432.555 432.883 430.607 430.881 432.883 433.24 430.881 431.18 430.132 430.357 428.221 428.407 430.357 430.607 428.407 428.613 428.221 428.407 426.258 426.408 428.407 428.613 426.408 426.575 430.607 430.881 428.613 428.839 430.881 431.18 428.839 429.084 428.613 428.839 426.575 426.758 428.839 429.084 426.758 426.957 435.262 435.718 433.24 433.626 435.718 436.208 433.626 434.041 433.24 433.626 431.18 431.502 433.626 434.041 431.502 431.849 436.208 436.733 434.041 434.485 436.733 437.292 434.485 434.958 434.041 434.485 431.849 432.22 434.485 434.958 432.22 432.614 431.18 431.502 429.084 429.349 431.502 431.849 429.349 429.635 429.084 429.349 426.957 427.171 429.349 429.635 427.171 427.402 431.849 432.22 429.635 429.94 432.22 432.614 429.94 430.265 429.635 429.94 427.402 427.649 429.94 430.265 427.649 427.911 426.258 426.408 424.245 424.365 426.408 426.575 424.365 424.498 424.245 424.365 422.188 422.281 424.365 424.498 422.281 422.384 426.575 426.758 424.498 424.643 426.758 426.957 424.643 424.8 424.498 424.643 422.384 422.496 424.643 424.8 422.496 422.618 422.188 422.281 420.09 420.16 422.281 422.384 420.16 420.238 420.09 420.16 417.955 418.006 420.16 420.238 418.006 418.062 422.384 422.496 420.238 420.322 422.496 422.618 420.322 420.414 420.238 420.322 418.062 418.124 420.322 420.414 418.124 418.191 426.957 427.171 424.8 424.97 427.171 427.402 424.97 425.153 424.8 424.97 422.618 422.75 424.97 425.153 422.75 422.892 427.402 427.649 425.153 425.349 427.649 427.911 425.349 425.557 425.153 425.349 422.892 423.043 425.349 425.557 423.043 423.204 422.618 422.75 420.414 4