# vtk DataFile Version 3.0
#This file was generated by the deal.II library on 2012/3/30 at 23:52: 0
ASCII
DATASET UNSTRUCTURED_GRID

POINTS 8192 double
0 0 0
0.03125 0 0
0 0.03125 0
0.03125 0.03125 0
0.03125 0 0
0.0625 0 0
0.03125 0.03125 0
0.0625 0.03125 0
0 0.03125 0
0.03125 0.03125 0
0 0.0625 0
0.03125 0.0625 0
0.03125 0.03125 0
0.0625 0.03125 0
0.03125 0.0625 0
0.0625 0.0625 0
0.0625 0 0
0.09375 0 0
0.0625 0.03125 0
0.09375 0.03125 0
0.09375 0 0
0.125 0 0
0.09375 0.03125 0
0.125 0.03125 0
0.0625 0.03125 0
0.09375 0.03125 0
0.0625 0.0625 0
0.09375 0.0625 0
0.09375 0.03125 0
0.125 0.03125 0
0.09375 0.0625 0
0.125 0.0625 0
0 0.0625 0
0.03125 0.0625 0
0 0.09375 0
0.03125 0.09375 0
0.03125 0.0625 0
0.0625 0.0625 0
0.03125 0.09375 0
0.0625 0.09375 0
0 0.09375 0
0.03125 0.09375 0
0 0.125 0
0.03125 0.125 0
0.03125 0.09375 0
0.0625 0.09375 0
0.03125 0.125 0
0.0625 0.125 0
0.0625 0.0625 0
0.09375 0.0625 0
0.0625 0.09375 0
0.09375 0.09375 0
0.09375 0.0625 0
0.125 0.0625 0
0.09375 0.09375 0
0.125 0.09375 0
0.0625 0.09375 0
0.09375 0.09375 0
0.0625 0.125 0
0.09375 0.125 0
0.09375 0.09375 0
0.125 0.09375 0
0.09375 0.125 0
0.125 0.125 0
0.125 0 0
0.15625 0 0
0.125 0.03125 0
0.15625 0.03125 0
0.15625 0 0
0.1875 0 0
0.15625 0.03125 0
0.1875 0.03125 0
0.125 0.03125 0
0.15625 0.03125 0
0.125 0.0625 0
0.15625 0.0625 0
0.15625 0.03125 0
0.1875 0.03125 0
0.15625 0.0625 0
0.1875 0.0625 0
0.1875 0 0
0.21875 0 0
0.1875 0.03125 0
0.21875 0.03125 0
0.21875 0 0
0.25 0 0
0.21875 0.03125 0
0.25 0.03125 0
0.1875 0.03125 0
0.21875 0.03125 0
0.1875 0.0625 0
0.21875 0.0625 0
0.21875 0.03125 0
0.25 0.03125 0
0.21875 0.0625 0
0.25 0.0625 0
0.125 0.0625 0
0.15625 0.0625 0
0.125 0.09375 0
0.15625 0.09375 0
0.15625 0.0625 0
0.1875 0.0625 0
0.15625 0.09375 0
0.1875 0.09375 0
0.125 0.09375 0
0.15625 0.09375 0
0.125 0.125 0
0.15625 0.125 0
0.15625 0.09375 0
0.1875 0.09375 0
0.15625 0.125 0
0.1875 0.125 0
0.1875 0.0625 0
0.21875 0.0625 0
0.1875 0.09375 0
0.21875 0.09375 0
0.21875 0.0625 0
0.25 0.0625 0
0.21875 0.09375 0
0.25 0.09375 0
0.1875 0.09375 0
0.21875 0.09375 0
0.1875 0.125 0
0.21875 0.125 0
0.21875 0.09375 0
0.25 0.09375 0
0.21875 0.125 0
0.25 0.125 0
0 0.125 0
0.03125 0.125 0
0 0.15625 0
0.03125 0.15625 0
0.03125 0.125 0
0.0625 0.125 0
0.03125 0.15625 0
0.0625 0.15625 0
0 0.15625 0
0.03125 0.15625 0
0 0.1875 0
0.03125 0.1875 0
0.03125 0.15625 0
0.0625 0.15625 0
0.03125 0.1875 0
0.0625 0.1875 0
0.0625 0.125 0
0.09375 0.125 0
0.0625 0.15625 0
0.09375 0.15625 0
0.09375 0.125 0
0.125 0.125 0
0.09375 0.15625 0
0.125 0.15625 0
0.0625 0.15625 0
0.09375 0.15625 0
0.0625 0.1875 0
0.09375 0.1875 0
0.09375 0.15625 0
0.125 0.15625 0
0.09375 0.1875 0
0.125 0.1875 0
0 0.1875 0
0.03125 0.1875 0
0 0.21875 0
0.03125 0.21875 0
0.03125 0.1875 0
0.0625 0.1875 0
0.03125 0.21875 0
0.0625 0.21875 0
0 0.21875 0
0.03125 0.21875 0
0 0.25 0
0.03125 0.25 0
0.03125 0.21875 0
0.0625 0.21875 0
0.03125 0.25 0
0.0625 0.25 0
0.0625 0.1875 0
0.09375 0.1875 0
0.0625 0.21875 0
0.09375 0.21875 0
0.09375 0.1875 0
0.125 0.1875 0
0.09375 0.21875 0
0.125 0.21875 0
0.0625 0.21875 0
0.09375 0.21875 0
0.0625 0.25 0
0.09375 0.25 0
0.09375 0.21875 0
0.125 0.21875 0
0.09375 0.25 0
0.125 0.25 0
0.125 0.125 0
0.15625 0.125 0
0.125 0.15625 0
0.15625 0.15625 0
0.15625 0.125 0
0.1875 0.125 0
0.15625 0.15625 0
0.1875 0.15625 0
0.125 0.15625 0
0.15625 0.15625 0
0.125 0.1875 0
0.15625 0.1875 0
0.15625 0.15625 0
0.1875 0.15625 0
0.15625 0.1875 0
0.1875 0.1875 0
0.1875 0.125 0
0.21875 0.125 0
0.1875 0.15625 0
0.21875 0.15625 0
0.21875 0.125 0
0.25 0.125 0
0.21875 0.15625 0
0.25 0.15625 0
0.1875 0.15625 0
0.21875 0.15625 0
0.1875 0.1875 0
0.21875 0.1875 0
0.21875 0.15625 0
0.25 0.15625 0
0.21875 0.1875 0
0.25 0.1875 0
0.125 0.1875 0
0.15625 0.1875 0
0.125 0.21875 0
0.15625 0.21875 0
0.15625 0.1875 0
0.1875 0.1875 0
0.15625 0.21875 0
0.1875 0.21875 0
0.125 0.21875 0
0.15625 0.21875 0
0.125 0.25 0
0.15625 0.25 0
0.15625 0.21875 0
0.1875 0.21875 0
0.15625 0.25 0
0.1875 0.25 0
0.1875 0.1875 0
0.21875 0.1875 0
0.1875 0.21875 0
0.21875 0.21875 0
0.21875 0.1875 0
0.25 0.1875 0
0.21875 0.21875 0
0.25 0.21875 0
0.1875 0.21875 0
0.21875 0.21875 0
0.1875 0.25 0
0.21875 0.25 0
0.21875 0.21875 0
0.25 0.21875 0
0.21875 0.25 0
0.25 0.25 0
0.25 0 0
0.28125 0 0
0.25 0.03125 0
0.28125 0.03125 0
0.28125 0 0
0.3125 0 0
0.28125 0.03125 0
0.3125 0.03125 0
0.25 0.03125 0
0.28125 0.03125 0
0.25 0.0625 0
0.28125 0.0625 0
0.28125 0.03125 0
0.3125 0.03125 0
0.28125 0.0625 0
0.3125 0.0625 0
0.3125 0 0
0.34375 0 0
0.3125 0.03125 0
0.34375 0.03125 0
0.34375 0 0
0.375 0 0
0.34375 0.03125 0
0.375 0.03125 0
0.3125 0.03125 0
0.34375 0.03125 0
0.3125 0.0625 0
0.34375 0.0625 0
0.34375 0.03125 0
0.375 0.03125 0
0.34375 0.0625 0
0.375 0.0625 0
0.25 0.0625 0
0.28125 0.0625 0
0.25 0.09375 0
0.28125 0.09375 0
0.28125 0.0625 0
0.3125 0.0625 0
0.28125 0.09375 0
0.3125 0.09375 0
0.25 0.09375 0
0.28125 0.09375 0
0.25 0.125 0
0.28125 0.125 0
0.28125 0.09375 0
0.3125 0.09375 0
0.28125 0.125 0
0.3125 0.125 0
0.3125 0.0625 0
0.34375 0.0625 0
0.3125 0.09375 0
0.34375 0.09375 0
0.34375 0.0625 0
0.375 0.0625 0
0.34375 0.09375 0
0.375 0.09375 0
0.3125 0.09375 0
0.34375 0.09375 0
0.3125 0.125 0
0.34375 0.125 0
0.34375 0.09375 0
0.375 0.09375 0
0.34375 0.125 0
0.375 0.125 0
0.375 0 0
0.40625 0 0
0.375 0.03125 0
0.40625 0.03125 0
0.40625 0 0
0.4375 0 0
0.40625 0.03125 0
0.4375 0.03125 0
0.375 0.03125 0
0.40625 0.03125 0
0.375 0.0625 0
0.40625 0.0625 0
0.40625 0.03125 0
0.4375 0.03125 0
0.40625 0.0625 0
0.4375 0.0625 0
0.4375 0 0
0.46875 0 0
0.4375 0.03125 0
0.46875 0.03125 0
0.46875 0 0
0.5 0 0
0.46875 0.03125 0
0.5 0.03125 0
0.4375 0.03125 0
0.46875 0.03125 0
0.4375 0.0625 0
0.46875 0.0625 0
0.46875 0.03125 0
0.5 0.03125 0
0.46875 0.0625 0
0.5 0.0625 0
0.375 0.0625 0
0.40625 0.0625 0
0.375 0.09375 0
0.40625 0.09375 0
0.40625 0.0625 0
0.4375 0.0625 0
0.40625 0.09375 0
0.4375 0.09375 0
0.375 0.09375 0
0.40625 0.09375 0
0.375 0.125 0
0.40625 0.125 0
0.40625 0.09375 0
0.4375 0.09375 0
0.40625 0.125 0
0.4375 0.125 0
0.4375 0.0625 0
0.46875 0.0625 0
0.4375 0.09375 0
0.46875 0.09375 0
0.46875 0.0625 0
0.5 0.0625 0
0.46875 0.09375 0
0.5 0.09375 0
0.4375 0.09375 0
0.46875 0.09375 0
0.4375 0.125 0
0.46875 0.125 0
0.46875 0.09375 0
0.5 0.09375 0
0.46875 0.125 0
0.5 0.125 0
0.25 0.125 0
0.28125 0.125 0
0.25 0.15625 0
0.28125 0.15625 0
0.28125 0.125 0
0.3125 0.125 0
0.28125 0.15625 0
0.3125 0.15625 0
0.25 0.15625 0
0.28125 0.15625 0
0.25 0.1875 0
0.28125 0.1875 0
0.28125 0.15625 0
0.3125 0.15625 0
0.28125 0.1875 0
0.3125 0.1875 0
0.3125 0.125 0
0.34375 0.125 0
0.3125 0.15625 0
0.34375 0.15625 0
0.34375 0.125 0
0.375 0.125 0
0.34375 0.15625 0
0.375 0.15625 0
0.3125 0.15625 0
0.34375 0.15625 0
0.3125 0.1875 0
0.34375 0.1875 0
0.34375 0.15625 0
0.375 0.15625 0
0.34375 0.1875 0
0.375 0.1875 0
0.25 0.1875 0
0.28125 0.1875 0
0.25 0.21875 0
0.28125 0.21875 0
0.28125 0.1875 0
0.3125 0.1875 0
0.28125 0.21875 0
0.3125 0.21875 0
0.25 0.21875 0
0.28125 0.21875 0
0.25 0.25 0
0.28125 0.25 0
0.28125 0.21875 0
0.3125 0.21875 0
0.28125 0.25 0
0.3125 0.25 0
0.3125 0.1875 0
0.34375 0.1875 0
0.3125 0.21875 0
0.34375 0.21875 0
0.34375 0.1875 0
0.375 0.1875 0
0.34375 0.21875 0
0.375 0.21875 0
0.3125 0.21875 0
0.34375 0.21875 0
0.3125 0.25 0
0.34375 0.25 0
0.34375 0.21875 0
0.375 0.21875 0
0.34375 0.25 0
0.375 0.25 0
0.375 0.125 0
0.40625 0.125 0
0.375 0.15625 0
0.40625 0.15625 0
0.40625 0.125 0
0.4375 0.125 0
0.40625 0.15625 0
0.4375 0.15625 0
0.375 0.15625 0
0.40625 0.15625 0
0.375 0.1875 0
0.40625 0.1875 0
0.40625 0.15625 0
0.4375 0.15625 0
0.40625 0.1875 0
0.4375 0.1875 0
0.4375 0.125 0
0.46875 0.125 0
0.4375 0.15625 0
0.46875 0.15625 0
0.46875 0.125 0
0.5 0.125 0
0.46875 0.15625 0
0.5 0.15625 0
0.4375 0.15625 0
0.46875 0.15625 0
0.4375 0.1875 0
0.46875 0.1875 0
0.46875 0.15625 0
0.5 0.15625 0
0.46875 0.1875 0
0.5 0.1875 0
0.375 0.1875 0
0.40625 0.1875 0
0.375 0.21875 0
0.40625 0.21875 0
0.40625 0.1875 0
0.4375 0.1875 0
0.40625 0.21875 0
0.4375 0.21875 0
0.375 0.21875 0
0.40625 0.21875 0
0.375 0.25 0
0.40625 0.25 0
0.40625 0.21875 0
0.4375 0.21875 0
0.40625 0.25 0
0.4375 0.25 0
0.4375 0.1875 0
0.46875 0.1875 0
0.4375 0.21875 0
0.46875 0.21875 0
0.46875 0.1875 0
0.5 0.1875 0
0.46875 0.21875 0
0.5 0.21875 0
0.4375 0.21875 0
0.46875 0.21875 0
0.4375 0.25 0
0.46875 0.25 0
0.46875 0.21875 0
0.5 0.21875 0
0.46875 0.25 0
0.5 0.25 0
0 0.25 0
0.03125 0.25 0
0 0.28125 0
0.03125 0.28125 0
0.03125 0.25 0
0.0625 0.25 0
0.03125 0.28125 0
0.0625 0.28125 0
0 0.28125 0
0.03125 0.28125 0
0 0.3125 0
0.03125 0.3125 0
0.03125 0.28125 0
0.0625 0.28125 0
0.03125 0.3125 0
0.0625 0.3125 0
0.0625 0.25 0
0.09375 0.25 0
0.0625 0.28125 0
0.09375 0.28125 0
0.09375 0.25 0
0.125 0.25 0
0.09375 0.28125 0
0.125 0.28125 0
0.0625 0.28125 0
0.09375 0.28125 0
0.0625 0.3125 0
0.09375 0.3125 0
0.09375 0.28125 0
0.125 0.28125 0
0.09375 0.3125 0
0.125 0.3125 0
0 0.3125 0
0.03125 0.3125 0
0 0.34375 0
0.03125 0.34375 0
0.03125 0.3125 0
0.0625 0.3125 0
0.03125 0.34375 0
0.0625 0.34375 0
0 0.34375 0
0.03125 0.34375 0
0 0.375 0
0.03125 0.375 0
0.03125 0.34375 0
0.0625 0.34375 0
0.03125 0.375 0
0.0625 0.375 0
0.0625 0.3125 0
0.09375 0.3125 0
0.0625 0.34375 0
0.09375 0.34375 0
0.09375 0.3125 0
0.125 0.3125 0
0.09375 0.34375 0
0.125 0.34375 0
0.0625 0.34375 0
0.09375 0.34375 0
0.0625 0.375 0
0.09375 0.375 0
0.09375 0.34375 0
0.125 0.34375 0
0.09375 0.375 0
0.125 0.375 0
0.125 0.25 0
0.15625 0.25 0
0.125 0.28125 0
0.15625 0.28125 0
0.15625 0.25 0
0.1875 0.25 0
0.15625 0.28125 0
0.1875 0.28125 0
0.125 0.28125 0
0.15625 0.28125 0
0.125 0.3125 0
0.15625 0.3125 0
0.15625 0.28125 0
0.1875 0.28125 0
0.15625 0.3125 0
0.1875 0.3125 0
0.1875 0.25 0
0.21875 0.25 0
0.1875 0.28125 0
0.21875 0.28125 0
0.21875 0.25 0
0.25 0.25 0
0.21875 0.28125 0
0.25 0.28125 0
0.1875 0.28125 0
0.21875 0.28125 0
0.1875 0.3125 0
0.21875 0.3125 0
0.21875 0.28125 0
0.25 0.28125 0
0.21875 0.3125 0
0.25 0.3125 0
0.125 0.3125 0
0.15625 0.3125 0
0.125 0.34375 0
0.15625 0.34375 0
0.15625 0.3125 0
0.1875 0.3125 0
0.15625 0.34375 0
0.1875 0.34375 0
0.125 0.34375 0
[...]
POINT_DATA 8192
SCALARS Temperature double 1
LOOKUP_TABLE default
582.135 582.252 582.127 582.243 582.252 582.4 582.243 582.39 582.127 582.243 582.102 582.215 582.243 582.39 582.215 582.36 582.4 582.58 582.39 582.569 582.58 582.792 582.569 582.781 582.39 582.569 582.36 582.536 582.569 582.781 582.536 582.746 582.102 582.215 582.058 582.168 582.215 582.36 582.168 582.31 582.058 582.168 581.996 582.102 582.168 582.31 582.102 582.24 582.36 582.536 582.31 582.483 582.536 582.746 582.483 582.688 582.31 582.483 582.24 582.408 582.483 582.688 582.408 582.608 582.792 583.039 582.781 583.026 583.039 583.319 583.026 583.306 582.781 583.026 582.746 582.989 583.026 583.306 582.989 583.264 583.319 583.634 583.306 583.619 583.634 583.984 583.619 583.967 583.306 583.619 583.264 583.574 583.619 583.967 583.574 583.918 582.746 582.989 582.688 582.926 582.989 583.264 582.926 583.196 582.688 582.926 582.608 582.839 582.926 583.196 582.839 583.102 583.264 583.574 583.196 583.499 583.574 583.918 583.499 583.835 583.196 583.499 583.102 583.396 583.499 583.835 583.396 583.721 581.996 582.102 581.915 582.017 582.102 582.24 582.017 582.15 581.915 582.017 581.816 581.915 582.017 582.15 581.915 582.042 582.24 582.408 582.15 582.313 582.408 582.608 582.313 582.506 582.15 582.313 582.042 582.198 582.313 582.506 582.198 582.383 581.816 581.915 581.7 581.794 581.915 582.042 581.794 581.916 581.7 581.794 581.567 581.658 581.794 581.916 581.658 581.773 582.042 582.198 581.916 582.065 582.198 582.383 582.065 582.24 581.916 582.065 581.773 581.913 582.065 582.24 581.913 582.078 582.608 582.839 582.506 582.729 582.839 583.102 582.729 582.982 582.506 582.729 582.383 582.596 582.729 582.982 582.596 582.837 583.102 583.396 582.982 583.264 583.396 583.721 583.264 583.576 582.982 583.264 582.837 583.105 583.264 583.576 583.105 583.401 582.383 582.596 582.24 582.441 582.596 582.837 582.441 582.668 582.24 582.441 582.078 582.266 582.441 582.668 582.266 582.478 582.837 583.105 582.668 582.92 583.105 583.401 582.92 583.198 582.668 582.92 582.478 582.712 582.92 583.198 582.712 582.967 583.984 584.368 583.967 584.35 584.368 584.788 584.35 584.768 583.967 584.35 583.918 584.295 584.35 584.768 584.295 584.707 584.788 585.244 584.768 585.221 585.244 585.737 585.221 585.712 584.768 585.221 584.707 585.154 585.221 585.712 585.154 585.636 583.918 584.295 583.835 584.204 584.295 584.707 584.204 584.606 583.835 584.204 583.721 584.078 584.204 584.606 584.078 584.466 584.707 585.154 584.606 585.042 585.154 585.636 585.042 585.512 584.606 585.042 584.466 584.886 585.042 585.512 584.886 585.339 585.737 586.267 585.712 586.239 586.267 586.838 586.239 586.807 585.712 586.239 585.636 586.156 586.239 586.807 586.156 586.713 586.838 587.45 586.807 587.415 587.45 588.106 587.415 588.067 586.807 587.415 586.713 587.311 587.415 588.067 587.311 587.952 585.636 586.156 585.512 586.017 586.156 586.713 586.017 586.559 585.512 586.017 585.339 585.824 586.017 586.559 585.824 586.344 586.713 587.311 586.559 587.139 587.311 587.952 587.139 587.76 586.559 587.139 586.344 586.9 587.139 587.76 586.9 587.493 583.721 584.078 583.576 583.917 584.078 584.466 583.917 584.288 583.576 583.917 583.401 583.724 583.917 584.288 583.724 584.073 584.466 584.886 584.288 584.688 584.886 585.339 584.688 585.118 584.288 584.688 584.073 584.449 584.688 585.118 584.449 584.852 583.401 583.724 583.198 583.499 583.724 584.073 583.499 583.823 583.198 583.499 582.967 583.244 583.499 583.823 583.244 583.541 584.073 584.449 583.823 584.171 584.449 584.852 584.171 584.542 583.823 584.171 583.541 583.857 584.171 584.542 583.857 584.191 585.339 585.824 585.118 585.578 585.824 586.344 585.578 586.07 585.118 585.578 584.852 585.282 585.578 586.07 585.282 585.739 586.344 586.9 586.07 586.594 586.9 587.493 586.594 587.154 586.07 586.594 585.739 586.225 586.594 587.154 586.225 586.742 584.852 585.282 584.542 584.936 585.282 585.739 584.936 585.354 584.542 584.936 584.191 584.544 584.936 585.354 584.544 584.916 585.739 586.225 585.354 585.795 586.225 586.742 585.795 586.263 585.354 585.795 584.916 585.307 585.795 586.263 585.307 585.718 581.567 581.658 581.42 581.506 581.658 581.773 581.506 581.615 581.42 581.506 581.259 581.341 581.506 581.615 581.341 581.442 581.773 581.913 581.615 581.746 581.913 582.078 581.746 581.899 581.615 581.746 581.442 581.564 581.746 581.899 581.564 581.704 581.259 581.341 581.086 581.163 581.341 581.442 581.163 581.257 581.086 581.163 580.903 580.975 581.163 581.257 580.975 581.062 581.442 581.564 581.257 581.368 581.564 581.704 581.368 581.495 581.257 581.368 581.062 581.161 581.368 581.495 581.161 581.274 582.078 582.266 581.899 582.073 582.266 582.478 582.073 582.267 581.899 582.073 581.704 581.862 582.073 582.267 581.862 582.038 582.478 582.712 582.267 582.481 582.712 582.967 582.481 582.713 582.267 582.481 582.038 582.229 582.481 582.713 582.229 582.435 581.704 581.862 581.495 581.637 581.862 582.038 581.637 581.792 581.495 581.637 581.274 581.398 581.637 581.792 581.398 581.532 582.038 582.229 581.792 581.96 582.229 582.435 581.96 582.138 581.792 581.96 581.532 581.675 581.96 582.138 581.675 581.823 580.903 580.975 580.711 580.779 580.975 581.062 580.779 580.857 580.711 580.779 580.513 580.575 580.779 580.857 580.575 580.645 581.062 581.161 580.857 580.945 581.161 581.274 580.945 581.043 580.857 580.945 580.645 580.722 580.945 581.043 580.722 580.804 580.513 580.575 580.31 580.367 580.575 580.645 580.367 580.429 580.31 580.367 580.104 580.157 580.367 580.429 580.157 580.21 580.645 580.722 580.429 580.494 580.722 580.804 580.494 580.56 580.429 580.494 580.21 580.262 580.494 580.56 580.262 580.313 581.274 581.398 581.043 581.149 581.398 581.532 581.149 581.26 581.043 581.149 580.804 580.891 581.149 581.26 580.891 580.979 581.532 581.675 581.26 581.376 581.675 581.823 581.376 581.494 581.26 581.376 580.979 581.068 581.376 581.494 581.068 581.153 580.804 580.891 580.56 580.627 580.891 580.979 580.627 580.692 580.56 580.627 580.313 580.36 580.627 580.692 580.36 580.4 580.979 581.068 580.692 580.751 581.068 581.153 580.751 580.803 580.692 580.751 580.4 580.431 580.751 580.803 580.431 580.448 582.967 583.244 582.713 582.962 583.244 583.541 582.962 583.227 582.713 582.962 582.435 582.655 582.962 583.227 582.655 582.886 583.541 583.857 583.227 583.508 583.857 584.191 583.508 583.802 583.227 583.508 582.886 583.127 583.508 583.802 583.127 583.377 582.435 582.655 582.138 582.325 582.655 582.886 582.325 582.519 582.138 582.325 581.823 581.976 582.325 582.519 581.976 582.131 582.886 583.127 582.519 582.718 583.127 583.377 582.718 582.92 582.519 582.718 582.131 582.284 582.718 582.92 582.284 582.435 584.191 584.544 583.802 584.109 584.544 584.916 584.109 584.43 583.802 584.109 583.377 583.635 584.109 584.43 583.635 583.899 584.916 585.307 584.43 584.764 585.307 585.718 584.764 585.111 584.43 584.764 583.899 584.169 584.764 585.111 584.169 584.446 583.377 583.635 582.92 583.123 583.635 583.899 583.123 583.326 582.92 583.123 582.435 582.58 583.123 583.326 582.58 582.718 583.899 584.169 583.326 583.528 584.169 584.446 583.528 583.729 583.326 583.528 582.718 582.846 583.528 583.729 582.846 582.963 581.823 581.976 581.494 581.61 581.976 582.131 581.61 581.723 581.494 581.61 581.153 581.232 581.61 581.723 581.232 581.301 582.131 582.284 581.723 581.829 582.284 582.435 581.829 581.926 581.723 581.829 581.301 581.357 581.829 581.926 581.357 581.397 581.153 581.232 580.803 580.843 581.232 581.301 580.843 580.868 580.803 580.843 580.448 580.448 580.843 580.868 580.448 580.427 581.301 581.357 580.868 580.872 581.357 581.397 580.872 580.853 580.868 580.872 580.427 580.379 580.872 580.853 580.379 580.298 582.435 582.58 581.926 582.009 582.58 582.718 582.009 582.077 581.926 582.009 581.397 581.416 582.009 582.077 581.416 581.41 582.718 582.846 582.077 582.127 582.846 582.963 582.127 582.156 582.077 582.127 581.41 581.377 582.127 582.156 581.377 581.313 581.397 581.416 580.853 580.804 581.416 581.41 580.804 580.722 580.853 580.804 580.298 580.181 580.804 580.722 580.181 580.02 581.41 581.377 580.722 580.603 581.377 581.313 580.603 580.441 580.722 580.603 580.02 579.811 580.603 580.441 579.811 579.548 588.106 588.809 588.067 588.766 588.809 589.563 588.766 589.516 588.067 588.766 587.952 588.638 588.766 589.516 588.638 589.373 589.563 590.373 589.516 590.32 590.373 591.244 590.32 591.185 589.516 590.32 589.373 590.163 590.32 591.185 590.163 591.011 587.952 588.638 587.76 588.425 588.638 589.373 588.425 589.137 587.76 588.425 587.493 588.128 588.425 589.137 588.128 588.808 589.373 590.163 589.137 589.901 590.163 591.011 589.901 590.721 589.137 589.901 588.808 589.536 589.901 590.721 589.536 590.318 591.244 592.181 591.185 592.117 592.181 593.193 592.117 593.122 591.185 592.117 591.011 591.925 592.117 593.122 591.925 592.911 593.193 594.286 593.122 594.208 594.286 595.468 594.208 595.384 593.122 594.208 592.911 593.976 594.208 595.384 593.976 595.13 591.011 591.925 590.721 591.605 591.925 592.911 591.605 592.559 590.721 591.605 590.318 591.16 591.605 592.559 591.16 592.069 592.911 593.976 592.559 593.591 593.976 595.13 593.591 594.708 592.559 593.591 592.069 593.052 593.591 594.708 593.052 594.119 587.493 588.128 587.154 587.75 588.128 588.808 587.75 588.387 587.154 587.75 586.742 587.292 587.75 588.387 587.292 587.879 588.808 589.536 588.387 589.07 589.536 590.318 589.07 589.802 588.387 589.07 587.879 588.505 589.07 589.802 588.505 589.176 586.742 587.292 586.263 586.758 587.292 587.879 586.758 587.284 586.263 586.758 585.718 586.15 586.758 587.284 586.15 586.607 587.879 588.505 587.284 587.844 588.505 589.176 587.844 588.444 587.284 587.844 586.607 587.092 587.844 588.444 587.092 587.608 590.318 591.16 589.802 590.59 591.16 592.069 590.59 591.441 589.802 590.59 589.176 589.899 590.59 591.441 589.899 590.679 592.069 593.052 591.441 592.363 593.052 594.119 592.363 593.365 591.441 592.363 590.679 591.525 592.363 593.365 591.525 592.447 589.176 589.899 588.444 589.089 589.899 590.679 589.089 589.785 588.444 589.089 587.608 588.163 589.089 589.785 588.163 588.763 590.679 591.525 589.785 590.542 591.525 592.447 590.542 591.368 589.785 590.542 588.763 589.416 590.542 591.368 589.416 590.131 595.468 596.75 595.384 596.658 596.75 598.141 596.658 598.04 595.384 596.658 595.13 596.382 596.658 598.04 596.382 597.74 598.141 599.65 598.04 599.541 599.65 601.288 599.541 601.171 598.04 599.541 597.74 599.217 599.541 601.171 599.217 600.821 595.13 596.382 594.708 595.922 596.382 597.74 595.922 597.241 594.708 595.922 594.119 595.28 595.922 597.241 595.28 596.543 597.74 599.217 597.241 598.676 599.217 600.821 598.676 600.238 597.241 598.676 596.543 597.92 598.676 600.238 597.92 599.423 601.288 603.066 601.171 602.941 603.066 604.994 602.941 604.86 601.171 602.941 600.821 602.565 602.941 604.86 602.565 604.458 604.994 607.083 604.86 606.94 607.083 609.342 606.94 609.19 604.86 606.94 604.458 606.512 606.94 609.19 606.512 608.736 600.821 602.565 600.238 601.939 602.565 604.458 601.939 603.788 600.238 601.939 599.423 601.063 601.939 603.788 601.063 602.851 604.458 606.512 603.788 605.798 606.512 608.736 605.798 607.978 603.788 605.798 602.851 604.799 605.798 607.978 604.799 606.917 594.119 595.28 593.365 594.456 595.28 596.543 594.456 595.647 593.365 594.456 592.447 593.453 594.456 595.647 593.453 594.556 596.543 597.92 595.647 596.95 597.92 599.423 596.95 598.376 595.647 596.95 594.556 595.767 596.95 598.376 595.767 597.099 592.447 593.453 591.368 592.274 593.453 594.556 592.274 593.271 591.368 592.274 590.131 590.92 592.274 593.271 590.92 591.795 594.556 595.767 593.271 594.373 595.767 597.099 594.373 595.591 593.271 594.373 591.795 592.769 594.373 595.591 592.769 593.856 599.423 601.063 598.376 599.937 601.063 602.851 599.937 601.646 598.376 599.937 597.099 598.563 599.937 601.646 598.563 600.174 602.851 604.799 601.646 603.514 604.799 606.917 603.514 605.553 601.646 603.514 600.174 601.944 603.514 605.553 601.944 603.884 597.099 598.563 595.591 596.941 598.563 600.174 596.941 598.435 595.591 596.941 593.856 595.071 596.941 598.435 595.071 596.429 600.174 601.944 598.435 600.087 601.944 603.884 600.087 601.911 598.435 600.087 596.429 597.945 600.087 601.911 597.945 599.632 585.718 586.15 585.111 585.473 586.15 586.607 585.473 585.852 585.111 585.473 584.446 584.73 585.473 585.852 584.73 585.023 586.607 587.092 585.852 586.251 587.092 587.608 586.251 586.674 585.852 586.251 585.023 585.326 586.251 586.674 585.326 585.645 584.446 584.73 583.729 583.927 584.73 585.023 583.927 584.125 583.729 583.927 582.963 583.07 583.927 584.125 583.07 583.165 585.023 585.326 584.125 584.324 585.326 585.645 584.324 584.528 584.125 584.324 583.165 583.251 584.324 584.528 583.251 583.33 587.608 588.163 586.674 587.127 588.163 588.763 587.127 587.617 586.674 587.127 585.645 585.985 587.127 587.617 585.985 586.351 588.763 589.416 587.617 588.151 589.416 590.131 588.151 588.741 587.617 588.151 586.351 586.753 588.151 588.741 586.753 587.201 585.645 585.985 584.528 584.742 585.985 586.351 584.742 584.972 584.528 584.742 583.33 583.406 584.742 584.972 583.406 583.487 586.351 586.753 584.972 585.227 586.753 587.201 585.227 585.516 584.972 585.227 583.487 583.579 585.227 585.516 583.579 583.694 582.963 583.07 582.156 582.164 583.07 583.165 582.164 582.149 582.156 582.164 581.313 581.216 582.164 582.149 581.216 581.084 583.165 583.251 582.149 582.112 583.251 583.33 582.112 582.056 582.149 582.112 581.084 580.917 582.112 582.056 580.917 580.716 581.313 581.216 580.441 580.234 581.216 581.084 580.234 579.979 580.441 580.234 579.548 579.226 580.234 579.979 579.226 578.842 581.084 580.917 579.979 579.674 580.917 580.716 579.674 579.319 579.979 579.674 578.842 578.392 579.674 579.319 578.392 577.874 583.33 583.406 582.056 581.984 583.406 583.487 581.984 581.901 582.056 581.984 580.716 580.484 581.984 581.901 580.484 580.226 583.487 583.579 581.901 581.817 583.579 583.694 581.817 581.741 581.901 581.817 580.226 579.949 581.817 581.741 579.949 579.664 580.716 580.484 579.319 578.916 580.484 580.226 578.916 578.469 579.319 578.916 577.874 577.29 578.916 578.469 577.29 576.642 580.226 579.949 578.469 577.985 579.949 579.664 577.985 577.475 578.469 577.985 576.642 575.936 577.985 577.475 575.936 575.183 590.131 590.92 588.741 589.396 590.92 591.795 589.396 590.131 588.741 589.396 587.201 587.706 589.396 590.131 587.706 588.282 591.795 592.769 590.131 590.959 592.769 593.856 590.959 591.895 590.131 590.959 588.282 588.944 590.959 591.895 588.944 589.71 587.201 587.706 585.516 585.853 587.706 588.282 585.853 586.252 585.516 585.853 583.694 583.845 585.853 586.252 583.845 584.047 588.282 588.944 586.252 586.729 588.944 589.71 586.729 587.303 586.252 586.729 584.047 584.317 586.729 587.303 584.317 584.677 593.856 595.071 591.895 592.956 595.071 596.429 592.956 594.157 591.895 592.956 589.71 590.595 592.956 594.157 590.595 591.619 596.429 597.945 594.157 595.516 597.945 599.632 595.516 597.047 594.157 595.516 591.619 592.8 595.516 597.047 592.8 594.154 589.71 590.595 587.303 587.992 590.595 591.619 587.992 588.816 587.303 587.992 584.677 585.146 587.992 588.816 585.146 585.748 591.619 592.8 588.816 589.796 592.8 594.154 589.796 590.951 588.816 589.796 585.748 586.504 589.796 590.951 586.504 587.438 583.694 583.845 581.741 581.687 583.845 584.047 581.687 581.671 581.741 581.687 579.664 579.386 581.687 581.671 579.386 579.132 584.047 584.317 581.671 581.713 584.317 584.677 581.713 581.835 581.671 581.713 579.132 578.923 581.713 581.835 578.923 578.782 579.664 579.386 577.475 576.953 579.386 579.132 576.953 576.438 577.475 576.953 575.183 574.396 576.953 576.438 574.396 573.597 579.132 578.923 576.438 575.952 578.923 578.782 575.952 575.523 576.438 575.952 573.597 572.809 575.952 575.523 572.809 572.061 584.677 585.146 581.835 582.061 585.146 585.748 582.061 582.415 581.835 582.061 578.782 578.738 582.061 582.415 578.738 578.818 585.748 586.504 582.415 582.923 586.504 587.438 582.923 583.611 582.415 582.923 578.818 579.051 582.923 583.611 579.051 579.466 578.782 578.738 575.523 575.18 578.738 578.818 575.18 574.956 575.523 575.18 572.061 571.39 575.18 574.956 571.39 570.832 578.818 579.051 574.956 574.886 579.051 579.466 574.886 575.002 574.956 574.886 570.832 570.426 574.886 575.002 570.426 570.211 580.104 580.157 579.898 579.946 580.157 580.21 579.946 579.99 579.898 579.946 579.694 579.736 579.946 579.99 579.736 579.772 580.21 580.262 579.99 580.03 580.262 580.313 580.03 580.065 579.99 580.03 579.772 579.8 580.03 580.065 579.8 579.818 579.694 579.736 579.493 579.53 579.736 579.772 579.53 579.558 579.493 579.53 579.298 579.331 579.53 579.558 579.331 579.349 579.772 579.8 579.558 579.573 579.8 579.818 579.573 579.576 579.558 579.573 579.349 579.353 579.573 579.576 579.353 579.34 580.313 580.36 580.065 580.091 580.36 580.4 580.091 580.107 580.065 580.091 579.818 579.825 580.091 580.107 579.825 579.816 580.4 580.431 580.107 580.109 580.431 580.448 580.109 580.092 580.107 580.109 579.816 579.788 580.109 580.092 579.788 579.736 579.818 579.825 579.576 579.562 579.825 579.816 579.562 579.529 579.576 579.562 579.34 579.307 579.562 579.529 579.307 579.25 579.816 579.788 579.529 579.472 579.788 579.736 579.472 579.386 579.529 579.472 579.25 579.165 579.472 579.386 579.165 579.045 579.298 579.331 579.111 579.139 579.331 579.349 579.139 579.149 579.111 579.139 578.934 578.957 579.139 579.149 578.957 578.959 579.349 579.353 579.149 579.142 579.353 579.34 579.142 579.113 579.149 579.142 578.959 578.941 579.142 579.113 578.941 578.898 578.934 578.957 578.768 578.787 578.957 578.959 578.787 578.782 578.768 578.787 578.616 578.63 578.787 578.782 578.63 578.618 578.959 578.941 578.782 578.752 578.941 578.898 578.752 578.696 578.782 578.752 578.618 578.578 578.752 578.696 578.578 578.509 579.34 579.307 579.113 579.061 579.307 579.25 579.061 578.981 579.113 579.061 578.898 578.827 579.061 578.981 578.827 578.725 579.25 579.165 578.981 578.868 579.165 579.045 578.868 578.716 578.981 578.868 578.725 578.585 578.868 578.716 578.585 578.401 578.898 578.827 578.696 578.608 578.827 578.725 578.608 578.485 578.696 578.608 578.509 578.405 578.608 578.485 578.405 578.262 578.725 578.585 578.485 578.32 578.585 578.401 578.32 578.106 578.485 578.32 578.262 578.074 578.32 578.106 578.074 577.833 580.448 580.448 580.092 580.052 580.448 580.427 580.052 579.983 580.092 580.052 579.736 579.656 580.052 579.983 579.656 579.541 580.427 580.379 579.983 579.881 580.379 580.298 579.881 579.739 579.983 579.881 579.541 579.385 579.881 579.739 579.385 579.18 579.736 579.656 579.386 579.266 579.656 579.541 579.266 579.104 579.386 579.266 579.045 578.885 579.266 579.104 578.885 578.677 579.541 579.385 579.104 578.894 579.385 579.18 578.894 578.627 579.104 578.894 578.677 578.414 578.894 578.627 578.414 578.086 580.298 580.181 579.739 579.551 580.181 580.02 579.551 579.309 579.739 579.551 579.18 578.92 579.551 579.309 578.92 578.597 580.02 579.811 579.309 579.008 579.811 579.548 579.008 578.641 579.309 579.008 578.597 578.203 579.008 578.641 578.203 577.729 579.18 578.92 578.627 578.296 578.92 578.597 578.296 577.891 578.627 578.296 578.086 577.683 578.296 577.891 577.683 577.197 578.597 578.203 577.891 577.402 578.203 577.729 577.402 576.821 577.891 577.402 577.197 576.614 577.402 576.821 576.614 575.925 579.045 578.885 578.716 578.517 578.885 578.677 578.517 578.265 578.716 578.517 578.401 578.166 578.517 578.265 578.166 577.871 578.677 578.414 578.265 577.949 578.414 578.086 577.949 577.561 578.265 577.949 577.871 577.505 577.949 577.561 577.505 577.059 578.401 578.166 578.106 577.836 578.166 577.871 577.836 577.499 578.106 577.836 577.833 577.53 577.836 577.499 577.53 577.155 577.871 577.505 577.499 577.086 577.505 577.059 577.086 576.585 577.499 577.086 577.155 576.698 577.086 576.585 576.698 576.144 578.086 577.683 577.561 577.089 577.683 577.197 577.089 576.522 577.561 577.089 577.059 576.52 577.089 576.522 576.52 575.875 577.197 576.614 576.522 575.848 576.614 575.925 575.848 575.052 576.522 575.848 575.875 575.111 57